LAMMPS data file via write_data, version 7 Dec 2015, timestep = 10000

6000 atoms
2 atom types

0.0000000000000000e+00 1.0408600000000000e+02 xlo xhi
0.0000000000000000e+00 5.0443300000000001e+01 ylo yhi
0.0000000000000000e+00 4.1613000000000000e+01 zlo zhi

Masses

1 15
2 14

Atoms # full

5405 901 2 0.0000000000000000e+00 1.0331041960003817e+02 1.2245124633340507e+00 1.0559922252577937e-01 0 0 0
5411 902 2 0.0000000000000000e+00 2.4899650091572170e+00 1.3132993487708207e+00 2.8929527229692136e+00 1 0 0
5410 902 2 0.0000000000000000e+00 1.1232381701706748e+00 1.0013208339132980e+00 3.5048923725762124e+00 1 0 0
5412 902 1 0.0000000000000000e+00 3.1113586776859630e+00 2.5568937314420781e-02 2.3471851194760069e+00 1 0 0
5409 902 2 0.0000000000000000e+00 5.0184450164192929e-01 2.2890512453696976e+00 4.0506599760694195e+00 1 0 0
5408 902 2 0.0000000000000000e+00 1.0322111766265539e+02 1.9770727305121751e+00 4.6625996256764184e+00 0 0 0
10 2 2 0.0000000000000000e+00 5.6440282251767755e+00 3.0241015453794287e+00 4.5674154444797175e+00 0 0 0
12 2 1 0.0000000000000000e+00 4.5220725963874919e+00 5.2436551892205454e+00 4.8109280707225226e+00 0 0 0
670 112 2 0.0000000000000000e+00 1.2688345468071551e+01 5.0990387148174650e+00 1.0715839204981208e+00 0 0 0
667 112 1 0.0000000000000000e+00 1.0691792102057011e+01 1.8757250296244923e+00 3.9972593438520510e-01 0 0 0
668 112 2 0.0000000000000000e+00 1.1382372470427141e+01 2.9730383218699767e+00 1.2114333345505286e+00 0 0 0
669 112 2 0.0000000000000000e+00 1.1997765099701420e+01 4.0017254225719787e+00 2.5987652033279746e-01 0 0 0
8 2 2 0.0000000000000000e+00 6.7659838539660591e+00 8.0454790153831146e-01 4.3239028182369132e+00 0 0 0
11 2 2 0.0000000000000000e+00 5.5171830003739881e+00 4.2702452776190549e+00 5.4459246524249867e+00 0 0 0
671 112 2 0.0000000000000000e+00 1.3303215499107479e+01 6.1268750750661063e+00 1.2008306843087091e-01 0 0 0
678 113 1 0.0000000000000000e+00 1.3525165188049021e+01 4.3874509196597860e+00 4.7718695031104712e+00 0 0 0
677 113 2 0.0000000000000000e+00 1.2165754735672147e+01 4.9748267607196945e+00 5.1583387170301105e+00 0 0 0
606 101 1 0.0000000000000000e+00 1.7832803221224562e+01 5.8761519822420833e+00 1.2229279856346382e+00 0 0 0
605 101 2 0.0000000000000000e+00 1.7819483974259384e+01 4.4372858618155497e+00 7.0165179583793313e-01 0 0 0
613 103 1 0.0000000000000000e+00 1.5259595958211701e+01 2.1067092788415565e-01 1.3755053487743609e+00 0 0 0
616 103 2 0.0000000000000000e+00 1.7012171202048297e+01 1.6996316920727512e+00 4.4639874740744290e+00 0 0 0
614 103 2 0.0000000000000000e+00 1.5403709422815306e+01 9.6636895566970704e-01 2.6975850668779904e+00 0 0 0
604 101 2 0.0000000000000000e+00 1.6968404568432355e+01 4.3616630974328991e+00 4.1045916983757714e+01 0 0 -1
1207 202 1 0.0000000000000000e+00 2.3267301293222715e+01 5.0433645116656102e+01 7.6922224966820751e+00 0 -1 0
1267 212 1 0.0000000000000000e+00 2.2912159999084956e+01 2.4533826688244091e+00 4.4434131468630573e+00 0 0 0
1268 212 2 0.0000000000000000e+00 2.4380401262713498e+01 2.5618516549578016e+00 4.8615849785610532e+00 0 0 0
1269 212 2 0.0000000000000000e+00 2.5079420352147086e+01 3.6167094480964046e+00 4.0022166297942459e+00 0 0 0
1270 212 2 0.0000000000000000e+00 2.6547661615775628e+01 3.7251784342297971e+00 4.4203884614922417e+00 0 0 0
1271 212 2 0.0000000000000000e+00 2.7246680705209219e+01 4.7800362273684023e+00 3.5610201127254340e+00 0 0 0
1272 212 1 0.0000000000000000e+00 2.8714921968837761e+01 4.8885052135017943e+00 3.9791919444234298e+00 0 0 0
1862 311 2 0.0000000000000000e+00 3.6506506355721179e+01 4.6841242823968887e+00 2.6876597492258210e+00 0 0 0
1809 302 2 0.0000000000000000e+00 3.2573399764875965e+01 2.3596216579682405e+00 1.6117201803979482e+00 0 0 0
1808 302 2 0.0000000000000000e+00 3.1329925303975809e+01 2.3974188496399913e+00 7.2032542032203262e-01 0 0 0
1807 302 1 0.0000000000000000e+00 3.0344731917930265e+01 3.4346417363041892e+00 1.2619024290401895e+00 0 0 0
1810 302 2 0.0000000000000000e+00 3.3558593150921503e+01 1.3223987713040455e+00 1.0701431716797902e+00 0 0 0
1811 302 2 0.0000000000000000e+00 3.4802067611821656e+01 1.2846015796322947e+00 1.9615379317557058e+00 0 0 0
1861 311 1 0.0000000000000000e+00 3.5147631437261225e+01 4.9234519941037886e+00 3.3479989138901596e+00 0 0 0
1864 311 2 0.0000000000000000e+00 3.8673560527541390e+01 3.4525377049981008e+00 2.8667455352830395e+00 0 0 0
1865 311 2 0.0000000000000000e+00 3.9481739780901655e+01 2.4602788393062101e+00 3.7061704860045976e+00 0 0 0
1866 311 1 0.0000000000000000e+00 4.0840614699361609e+01 2.2209511275993097e+00 3.0458313213402586e+00 0 0 0
1812 302 1 0.0000000000000000e+00 3.5787260997867207e+01 2.4737869296809833e-01 1.4199609230375489e+00 0 0 0
2953 493 1 0.0000000000000000e+00 4.1235408505020260e+01 5.0164061017850990e+01 6.2126755220871859e+00 0 0 0
2954 493 2 0.0000000000000000e+00 4.2518603531522487e+01 5.0160234717154658e+01 5.3786582060901331e+00 0 0 0
1863 311 2 0.0000000000000000e+00 3.7314685609081444e+01 3.6918654167049976e+00 3.5270846999473786e+00 0 0 0
2467 412 1 0.0000000000000000e+00 4.4786786129882387e+01 4.4635352567492124e+00 2.7177676646443572e-01 0 0 0
2468 412 2 0.0000000000000000e+00 4.5371902657716042e+01 3.0795125854729797e+00 5.6244066902077927e-01 0 0 0
2469 412 2 0.0000000000000000e+00 4.6552499685705811e+01 3.2162940357177963e+00 1.5254298186848085e+00 0 0 0
2470 412 2 0.0000000000000000e+00 4.7137616213539474e+01 1.8322713644415631e+00 1.8160937212411519e+00 0 0 0
2471 412 2 0.0000000000000000e+00 4.8318213241529236e+01 1.9690528146863837e+00 2.7790828709051776e+00 0 0 0
2478 413 1 0.0000000000000000e+00 4.5101800966883964e+01 2.9944704240049749e+00 6.1523746990931372e+00 0 0 0
2472 412 1 0.0000000000000000e+00 4.8903329769362898e+01 5.8503014341015036e-01 3.0697467734615209e+00 0 0 0
3007 502 1 0.0000000000000000e+00 5.4739663435749286e+01 4.6564801664929352e+00 4.0230549526779589e+00 0 0 0
3008 502 2 0.0000000000000000e+00 5.6089841772638124e+01 3.9536402540144149e+00 4.1820407914287117e+00 0 0 0
3547 592 1 0.0000000000000000e+00 5.2267899146532216e+01 4.9500738609128099e+01 5.5162313290412230e+00 0 0 0
3009 502 2 0.0000000000000000e+00 5.5874616792668512e+01 2.5648707957029222e+00 4.7859783548889503e+00 0 0 0
3010 502 2 0.0000000000000000e+00 5.7224340966549377e+01 1.8628678617641379e+00 4.9446589021622263e+00 0 0 0
3011 502 2 0.0000000000000000e+00 5.7009570149587738e+01 4.7326142491291456e-01 5.5489017570999390e+00 0 0 0
3674 613 2 0.0000000000000000e+00 6.0509157577670202e+01 6.1669059603147192e+00 4.9111657094974523e+00 0 0 0
3065 511 2 0.0000000000000000e+00 5.8629877713601104e+01 6.2359942259348280e+00 1.1265299624006067e+00 0 0 0
3066 511 1 0.0000000000000000e+00 5.9559889833635616e+01 5.1114533813385759e+00 1.5851713859808014e+00 0 0 0
3675 613 2 0.0000000000000000e+00 6.1125545438713523e+01 4.9633733626606764e+00 5.6280624253098033e+00 0 0 0
3676 613 2 0.0000000000000000e+00 6.1362230868785979e+01 3.8359197280113548e+00 4.6217349841121207e+00 0 0 0
3003 501 2 0.0000000000000000e+00 5.4902307211561322e+01 1.1130297520742571e+00 5.6197510507199233e-01 0 0 0
3005 501 2 0.0000000000000000e+00 5.7279149928915828e+01 1.6112653398058518e+00 4.1585584745398045e+01 0 0 -1
3669 612 2 0.0000000000000000e+00 6.3257254678100303e+01 3.1807793946846523e+00 1.7743413900049632e-02 0 0 0
3670 612 2 0.0000000000000000e+00 6.4232071254578798e+01 2.6540581158712606e+00 1.0723352527969618e+00 0 0 0
3671 612 2 0.0000000000000000e+00 6.4641094306993523e+01 3.7959623319346827e+00 2.0043339190674172e+00 0 0 0
3677 613 2 0.0000000000000000e+00 6.1978277363966505e+01 2.6333198979572705e+00 5.3387475185420730e+00 0 0 0
3678 613 1 0.0000000000000000e+00 6.2215304159901748e+01 1.5049334957079967e+00 4.3323042587267899e+00 0 0 0
3672 612 1 0.0000000000000000e+00 6.5616464862506788e+01 3.2694873233123416e+00 3.0597210303843227e+00 0 0 0
3668 612 2 0.0000000000000000e+00 6.2847677646650794e+01 2.0386289084301783e+00 4.0697949475209597e+01 0 0 -1
4208 702 2 0.0000000000000000e+00 7.1945265463440478e+01 2.2071293575990616e+00 4.5194316214217150e+00 0 0 0
4261 711 1 0.0000000000000000e+00 7.3101351576199576e+01 4.4874720299659803e+00 4.1473825494307633e+01 0 0 -1
3606 601 1 0.0000000000000000e+00 6.8496405796049274e+01 1.9358660946653838e+00 5.3258912157206684e-02 0 0 0
4207 702 1 0.0000000000000000e+00 7.1105522398378838e+01 2.6598589764215692e+00 3.3227238635201797e+00 0 0 0
4209 702 2 0.0000000000000000e+00 7.3038791688368860e+01 1.2496027006383315e+00 4.0428961269373564e+00 0 0 0
4270 712 2 0.0000000000000000e+00 7.4507123365083871e+01 4.7489468137924788e+00 5.3465588985072801e+00 0 0 0
4265 711 2 0.0000000000000000e+00 7.8073987836108358e+01 4.0809990298335759e+00 1.5692062564852755e-01 0 0 0
4264 711 2 0.0000000000000000e+00 7.6807064825672697e+01 3.4884617196968812e+00 4.1150507813604243e+01 0 0 -1
4263 711 2 0.0000000000000000e+00 7.5587669706153960e+01 4.2842355298997790e+00 8.8730599780788566e-03 0 0 0
4266 711 1 0.0000000000000000e+00 7.9293382955627095e+01 3.2852252196306786e+00 4.1298555379274688e+01 0 0 -1
4262 711 2 0.0000000000000000e+00 7.4320746695718313e+01 3.6916982197630825e+00 4.1002460247933797e+01 0 0 -1
4210 702 2 0.0000000000000000e+00 7.3878534753430500e+01 7.9687308181582428e-01 5.2396038848388926e+00 0 0 0
4271 712 2 0.0000000000000000e+00 7.6013691758547552e+01 4.6855372776371702e+00 5.0894645256772240e+00 0 0 0
4272 712 1 0.0000000000000000e+00 7.6296394259575081e+01 3.7053419362519495e+00 3.9485604987584435e+00 0 0 0
4867 812 1 0.0000000000000000e+00 8.0937217171987626e+01 2.1399660884220730e+00 5.9193551600134962e+00 0 0 0
4863 811 2 0.0000000000000000e+00 8.5289823850288400e+01 4.4335807649872248e+00 3.2483610074391489e-02 0 0 0
4861 811 1 0.0000000000000000e+00 8.3009570684593001e+01 4.9857199756320494e+00 8.9305829736457643e-01 0 0 0
4862 811 2 0.0000000000000000e+00 8.3813405186515240e+01 4.0311155821742464e+00 8.4978666926573965e-03 0 0 0
5467 912 1 0.0000000000000000e+00 9.1771443933951673e+01 2.7165491699290851e+00 2.8761706426356017e+00 0 0 0
5468 912 2 0.0000000000000000e+00 9.3195167518825386e+01 3.1773555170109318e+00 2.5551811188759679e+00 0 0 0
4811 802 2 0.0000000000000000e+00 8.9253687107073716e+01 1.9228497083650109e-01 5.9223939088000197e+00 0 0 0
4865 811 2 0.0000000000000000e+00 8.7570077015983799e+01 3.8814415543424001e+00 4.0784908922784204e+01 0 0 -1
4864 811 2 0.0000000000000000e+00 8.6093658352210639e+01 3.4789763715294217e+00 4.0760923179402475e+01 0 0 -1
4807 802 1 0.0000000000000000e+00 8.5766867522103780e+01 3.4859070796081371e+00 4.5173506402560726e+00 0 0 0
4809 802 2 0.0000000000000000e+00 8.7510277314588748e+01 1.8390960252223192e+00 5.2198722745280461e+00 0 0 0
4808 802 2 0.0000000000000000e+00 8.7199379307660223e+01 3.0054419366312084e+00 4.2790101033639374e+00 0 0 0
4810 802 2 0.0000000000000000e+00 8.8942789100145191e+01 1.3586308822453903e+00 4.9815317376359118e+00 0 0 0
5469 912 2 0.0000000000000000e+00 9.4198847008611523e+01 2.2613652466531784e+00 3.2576452933308335e+00 0 0 0
5470 912 2 0.0000000000000000e+00 9.5622570593485221e+01 2.7221715937350255e+00 2.9366557695712001e+00 0 0 0
5471 912 2 0.0000000000000000e+00 9.6626250083271358e+01 1.8061813233772719e+00 3.6391199440260653e+00 0 0 0
5472 912 1 0.0000000000000000e+00 9.8049973668145071e+01 2.2669876704591188e+00 3.3181304202664319e+00 0 0 0
5477 913 2 0.0000000000000000e+00 9.7318174842549780e+01 3.1312234019496081e+00 7.1256188796525111e+00 0 0 0
5526 921 1 0.0000000000000000e+00 9.8566204436582424e+01 4.6938473064663881e+00 4.1188957585162491e+01 0 0 -1
62 11 2 0.0000000000000000e+00 1.0323008770512514e+02 6.0029752742399118e+00 1.9622959397657342e+00 -1 0 0
61 11 1 0.0000000000000000e+00 1.0193103126684994e+02 6.8106013222608146e+00 1.9984677068488763e+00 -1 0 0
65 11 2 0.0000000000000000e+00 2.6810503383133057e+00 6.9133507273459687e+00 7.4134124535133106e-01 0 0 0
64 11 2 0.0000000000000000e+00 1.5620972408568172e+00 6.0543499767824889e+00 1.3337327090169615e+00 0 0 0
63 11 2 0.0000000000000000e+00 2.6304080258162721e-01 6.8619760248033916e+00 1.3699044761001038e+00 0 0 0
5407 902 1 0.0000000000000000e+00 1.0259972399412663e+02 3.2648031419685748e+00 5.2083672291696255e+00 0 0 0
5478 913 1 0.0000000000000000e+00 9.8631904721993592e+01 3.6543295774629616e+00 7.7111437236995588e+00 0 0 0
131 22 2 0.0000000000000000e+00 1.0266767555430080e+02 1.1834164138423192e+01 2.5144392237048994e+00 -1 0 0
132 22 1 0.0000000000000000e+00 1.0390293384837564e+02 1.1194277983491446e+01 1.8775546928470987e+00 -1 0 0
135 23 2 0.0000000000000000e+00 9.1622472516291276e-01 8.5366123607194044e+00 5.5740030284917683e+00 0 0 0
136 23 2 0.0000000000000000e+00 1.5700747069332461e+00 9.3689222012192861e+00 4.4691592473416932e+00 0 0 0
137 23 2 0.0000000000000000e+00 3.0910744219169284e+00 9.2288331813411126e+00 4.5564764479904145e+00 0 0 0
138 23 1 0.0000000000000000e+00 3.7449244036872624e+00 1.0061143021840996e+01 3.4516326668403394e+00 0 0 0
68 12 2 0.0000000000000000e+00 8.9327885459343470e+00 7.0997481079361346e+00 1.3410008931702724e+00 0 0 0
70 12 2 0.0000000000000000e+00 7.8073656596411203e+00 9.1277528020750758e+00 4.1088181608506014e-01 0 0 0
721 121 1 0.0000000000000000e+00 7.3762038113942818e+00 1.3571890475298675e+01 2.5570090021649916e+00 0 0 0
722 121 2 0.0000000000000000e+00 7.8978001518316514e+00 1.2286138838059939e+01 3.2008024356358877e+00 0 0 0
723 121 2 0.0000000000000000e+00 9.3236375806609484e+00 1.2013930401527206e+01 2.7159527747822745e+00 0 0 0
673 113 1 0.0000000000000000e+00 9.8640926752557192e+00 8.6107107438507065e+00 7.6985569007401207e+00 0 0 0
675 113 2 0.0000000000000000e+00 1.1015154009852608e+01 6.7924049456028790e+00 6.4281936345621515e+00 0 0 0
724 121 2 0.0000000000000000e+00 9.8452339210983197e+00 1.0728178764288469e+01 3.3597462082531706e+00 0 0 0
725 121 2 0.0000000000000000e+00 1.1270292064705821e+01 1.0456593761158606e+01 2.8748329444493308e+00 0 0 0
676 113 2 0.0000000000000000e+00 1.2374103853452134e+01 6.2057567179076143e+00 6.0422327692884394e+00 0 0 0
732 122 1 0.0000000000000000e+00 1.7262577144439252e+01 8.7369478230751145e+00 3.4642075521612257e+00 0 0 0
731 122 2 0.0000000000000000e+00 1.7606910258687559e+01 8.9322538737389312e+00 4.9425442029299731e+00 0 0 0
1335 223 2 0.0000000000000000e+00 2.3315469763482742e+01 7.6624492131384336e+00 4.6451363947060766e+00 0 0 0
1333 223 1 0.0000000000000000e+00 2.1031711982358921e+01 6.9040554640367358e+00 3.9711257727720639e+00 0 0 0
1334 223 2 0.0000000000000000e+00 2.2475632312315291e+01 6.4588529470598148e+00 4.2141850240177332e+00 0 0 0
1398 233 1 0.0000000000000000e+00 2.3827228148846189e+01 1.2043448768286620e+01 5.2326637645656406e+00 0 0 0
1327 222 1 0.0000000000000000e+00 2.3310588752001671e+01 8.0347242849885436e+00 3.9223749716879014e-01 0 0 0
1328 222 2 0.0000000000000000e+00 2.4598058785628385e+01 8.7954250542168086e+00 7.1772828384139620e-01 0 0 0
1387 232 1 0.0000000000000000e+00 2.8142531426336692e+01 1.1557118071131518e+01 5.3983836555513971e+00 0 0 0
1337 223 2 0.0000000000000000e+00 2.5599227544606567e+01 8.4208429622401315e+00 5.3191470166400912e+00 0 0 0
1338 223 1 0.0000000000000000e+00 2.7043147874562933e+01 7.9756404452632106e+00 5.5622062678857604e+00 0 0 0
1336 223 2 0.0000000000000000e+00 2.4759390093439112e+01 7.2172466961615118e+00 4.8881956459517468e+00 0 0 0
1927 322 1 0.0000000000000000e+00 3.1125157968409155e+01 9.3085129667679674e+00 7.1403626947268126e+00 0 0 0
1389 232 2 0.0000000000000000e+00 2.9759400025838787e+01 1.2072266933136607e+01 3.5638922868284477e+00 0 0 0
1330 222 2 0.0000000000000000e+00 2.7080851675363615e+01 8.6082750930019891e+00 9.3153978656624692e-01 0 0 0
1930 322 2 0.0000000000000000e+00 3.3807675526380976e+01 1.0795132997699792e+01 4.8120041667493973e+00 0 0 0
1929 322 2 0.0000000000000000e+00 3.2846116212610752e+01 9.7517897114223899e+00 5.3834308664070152e+00 0 0 0
1931 322 2 0.0000000000000000e+00 3.4567074456812350e+01 1.0195066456076809e+01 3.6264990380872231e+00 0 0 0
1928 322 2 0.0000000000000000e+00 3.2086717282179379e+01 1.0351856253045373e+01 6.5689359950691895e+00 0 0 0
1932 322 1 0.0000000000000000e+00 3.5528633770582573e+01 1.1238409742354214e+01 3.0550723384296004e+00 0 0 0
1391 232 2 0.0000000000000000e+00 3.1376268625340881e+01 1.2587415795141697e+01 1.7294009181054966e+00 0 0 0
1392 232 1 0.0000000000000000e+00 3.1593295437086830e+01 1.2575309027537127e+01 2.1449438991256597e-01 0 0 0
1390 232 2 0.0000000000000000e+00 2.9976426837584732e+01 1.2060160165532036e+01 2.0489857586355176e+00 0 0 0
2588 432 2 0.0000000000000000e+00 3.9267320460093060e+01 9.4602739851591622e+00 4.1860680285061518e+00 0 0 0
2587 432 1 0.0000000000000000e+00 3.8947774830304986e+01 8.0051731059274864e+00 4.5364407182845534e+00 0 0 0
2589 432 2 0.0000000000000000e+00 4.0770194411431014e+01 9.7031340735854794e+00 4.3346576103731405e+00 0 0 0
2530 422 2 0.0000000000000000e+00 4.4913528207042326e+01 7.9116428544426727e+00 6.5594319887028476e+00 0 0 0
2531 422 2 0.0000000000000000e+00 4.6387816839517271e+01 7.8690667126236757e+00 6.1540305823129087e+00 0 0 0
2532 422 1 0.0000000000000000e+00 4.6559164016133550e+01 6.9447525892562219e+00 4.9463582151499086e+00 0 0 0
2590 432 2 0.0000000000000000e+00 4.1089740041219081e+01 1.1158234952817155e+01 3.9842849205947388e+00 0 0 0
2537 423 2 0.0000000000000000e+00 4.9635590601006754e+01 1.3295192737152362e+01 5.0007003871232509e+00 0 0 0
3070 512 2 0.0000000000000000e+00 5.3814995996647490e+01 8.6984544750127206e+00 6.1917775981146290e+00 0 0 0
3068 512 2 0.0000000000000000e+00 5.1494409800405045e+01 8.7847474197406932e+00 7.1123411393757330e+00 0 0 0
3067 512 1 0.0000000000000000e+00 5.0009219508464625e+01 8.6352052975289695e+00 6.7743876508446492e+00 0 0 0
3069 512 2 0.0000000000000000e+00 5.2330734682367698e+01 8.5488778079872549e+00 5.8534555893508529e+00 0 0 0
3131 522 2 0.0000000000000000e+00 5.6688520400679067e+01 1.2494635008207140e+01 5.0326749263172612e+00 0 0 0
3130 522 2 0.0000000000000000e+00 5.6555696068531248e+01 1.3052268701821506e+01 6.4516856241400387e+00 0 0 0
3132 522 1 0.0000000000000000e+00 5.8149820925245280e+01 1.2133804988293839e+01 4.7604755992940877e+00 0 0 0
3071 512 2 0.0000000000000000e+00 5.4652249856270764e+01 8.4625503184455404e+00 4.9325235278570583e+00 0 0 0
3072 512 1 0.0000000000000000e+00 5.6136511170550570e+01 8.6121269854710061e+00 5.2708455366208327e+00 0 0 0
3673 613 1 0.0000000000000000e+00 6.0272472147597753e+01 7.2943595949640345e+00 5.9174931506951340e+00 0 0 0
3661 611 1 0.0000000000000000e+00 6.2468233013094832e+01 1.2841566261802054e+01 4.7502248071476307e+00 0 0 0
3731 622 2 0.0000000000000000e+00 6.8569076632652283e+01 6.4426065473092340e+00 2.2338905717125899e+00 0 0 0
3729 622 2 0.0000000000000000e+00 6.6620352678782837e+01 7.3513678391171338e+00 3.5053589614600753e+00 0 0 0
3730 622 2 0.0000000000000000e+00 6.7060060035432770e+01 6.6901393881121489e+00 2.1980241244387790e+00 0 0 0
3664 611 2 0.0000000000000000e+00 6.4405955310400401e+01 1.1428394385021299e+01 1.7376599273150257e+00 0 0 0
3663 611 2 0.0000000000000000e+00 6.4187278726400450e+01 1.2054761405868375e+01 3.1159601546984863e+00 0 0 0
3662 611 2 0.0000000000000000e+00 6.2686909597094768e+01 1.2215199240954981e+01 3.3719245797641748e+00 0 0 0
3728 622 2 0.0000000000000000e+00 6.5110555967890832e+01 7.5992644754732144e+00 3.4700015087378038e+00 0 0 0
3727 622 1 0.0000000000000000e+00 6.4670848611240899e+01 8.2604929264781966e+00 4.7773363457590969e+00 0 0 0
3665 611 2 0.0000000000000000e+00 6.5905636546263381e+01 1.1268271397816219e+01 1.4823494696972945e+00 0 0 0
3666 611 1 0.0000000000000000e+00 6.6125001023706020e+01 1.0641589529087621e+01 1.0339527486588196e-01 0 0 0
3732 622 1 0.0000000000000000e+00 6.9009564102974693e+01 5.7810143007510870e+00 9.2604674013975763e-01 0 0 0
3722 621 2 0.0000000000000000e+00 7.0794084755552916e+01 1.2472646185708459e+01 5.2404421273390591e+00 0 0 0
4327 722 1 0.0000000000000000e+00 7.2056620734460097e+01 7.8945282676998669e+00 3.1456166221009187e+00 0 0 0
4328 722 2 0.0000000000000000e+00 7.3067469674124808e+01 9.0435304070345079e+00 3.1326742504803802e+00 0 0 0
4329 722 2 0.0000000000000000e+00 7.4330821603436675e+01 8.6207552557087244e+00 3.8842679399998099e+00 0 0 0
4269 712 2 0.0000000000000000e+00 7.4224420864056341e+01 5.7291421551776995e+00 6.4874629254260610e+00 0 0 0
4330 722 2 0.0000000000000000e+00 7.5341670543101372e+01 9.7697573950433636e+00 3.8713255683792709e+00 0 0 0
4331 722 2 0.0000000000000000e+00 7.6605022472413253e+01 9.3469822437175853e+00 4.6229192578987046e+00 0 0 0
4332 722 1 0.0000000000000000e+00 7.7615871412077965e+01 1.0495984383052226e+01 4.6099768862781660e+00 0 0 0
4324 721 2 0.0000000000000000e+00 7.7591346824449218e+01 8.1562500684563819e+00 4.1229773316793391e+01 0 0 -1
4325 721 2 0.0000000000000000e+00 7.8372023701363958e+01 8.0597006216258134e+00 9.2860860301166737e-01 0 0 0
4323 721 2 0.0000000000000000e+00 7.6091989941198662e+01 8.2160716197609887e+00 4.1530670838632112e+01 0 0 -1
4321 721 1 0.0000000000000000e+00 7.3811956181033366e+01 8.3724426178961657e+00 4.0519733074252564e+01 0 0 -1
4873 813 1 0.0000000000000000e+00 9.0118534196543905e+01 5.7229307789317030e+00 4.7081930763250526e+00 0 0 0
4874 813 2 0.0000000000000000e+00 8.8806717502413562e+01 6.4614297888523256e+00 4.9795282626669577e+00 0 0 0
4928 822 2 0.0000000000000000e+00 8.5081114276186881e+01 9.8997297449257804e+00 6.5980643700394803e-01 0 0 0
4927 822 1 0.0000000000000000e+00 8.3763274641869486e+01 9.5268889311977603e+00 1.3409660554788043e+00 0 0 0
4326 721 1 0.0000000000000000e+00 7.9871380584614528e+01 7.9998790703212048e+00 6.2771108117295071e-01 0 0 0
4380 730 1 0.0000000000000000e+00 8.2558711112356079e+01 1.3983256452619248e+01 4.1486797383938836e+01 0 0 0
4929 822 2 0.0000000000000000e+00 8.6019142178162809e+01 8.6904893789448128e+00 6.6531936697295624e-01 0 0 0
4930 822 2 0.0000000000000000e+00 8.7336981812480204e+01 9.0633301926728329e+00 4.1597159748498100e+01 0 0 -1
4931 822 2 0.0000000000000000e+00 8.8275009714456147e+01 7.8540898266918653e+00 4.1602672678467108e+01 0 0 -1
4932 822 1 0.0000000000000000e+00 8.9592849348773555e+01 8.2269306404198801e+00 4.0921513059992250e+01 0 0 -1
4875 813 2 0.0000000000000000e+00 8.8922419887022116e+01 7.9059245476469080e+00 4.4871732484639191e+00 0 0 0
5527 922 1 0.0000000000000000e+00 9.2946839578155846e+01 8.5012874800038727e+00 5.4935454994521438e+00 0 0 0
5521 921 1 0.0000000000000000e+00 9.3257612976584724e+01 7.6423668308154662e+00 1.2912658155898145e+00 0 0 0
5529 922 2 0.0000000000000000e+00 9.5314138920292308e+01 7.9164376324963612e+00 4.9468778850915758e+00 0 0 0
5530 922 2 0.0000000000000000e+00 9.6412131368393617e+01 6.8634966686454364e+00 5.1139614287372028e+00 0 0 0
5531 922 2 0.0000000000000000e+00 9.7681438262428770e+01 7.3315877849888498e+00 4.4002102707310078e+00 0 0 0
5532 922 1 0.0000000000000000e+00 9.8779430710530079e+01 6.2786468211379241e+00 4.5672938143766348e+00 0 0 0
5653 943 1 0.0000000000000000e+00 9.7102924066239154e+01 1.0725596583351816e+01 8.1421255795568470e-02 0 0 0
5654 943 2 0.0000000000000000e+00 9.6648169347763158e+01 1.2165056639057294e+01 3.3309941148693001e-01 0 0 0
4938 823 1 0.0000000000000000e+00 9.2399877926328926e+01 1.2080419058598110e+01 4.1915933897108717e+00 0 0 0
5525 921 2 0.0000000000000000e+00 9.7779902187796907e+01 5.9232989833489738e+00 3.6789819023624659e-02 0 0 0
5522 921 2 0.0000000000000000e+00 9.4043915225370242e+01 6.4129151539328806e+00 8.3043358172868209e-01 0 0 0
5524 921 2 0.0000000000000000e+00 9.6305059830976333e+01 5.5533812301996344e+00 2.0319558344558625e-01 0 0 0
5523 921 2 0.0000000000000000e+00 9.5518757582190815e+01 6.7828329070822200e+00 6.6402781730671867e-01 0 0 0
128 22 2 0.0000000000000000e+00 9.9285421564724729e+01 1.0337910304796699e+01 3.5872972317166094e+00 -1 0 0
129 22 2 0.0000000000000000e+00 1.0035891941247534e+02 1.1405980299075820e+01 3.3693104931396549e+00 -1 0 0
130 22 2 0.0000000000000000e+00 1.0159417770655018e+02 1.0766094144144073e+01 2.7324259622818543e+00 -1 0 0
127 22 1 0.0000000000000000e+00 9.8050163270649890e+01 1.0977796459728445e+01 4.2241817625744105e+00 -1 0 0
5591 932 2 0.0000000000000000e+00 1.8134556017078058e+00 1.4588025309838880e+01 3.6183762324268813e+00 1 0 0
191 32 2 0.0000000000000000e+00 2.5330399949208013e+00 1.5263274841157292e+01 4.0850210444952438e+01 0 0 -1
192 32 1 0.0000000000000000e+00 3.6332087329256031e+00 1.4546199995127733e+01 2.2303855387530103e-02 0 0 0
250 42 2 0.0000000000000000e+00 3.4236395436364520e+00 1.8361817307830471e+01 2.3812776738532553e+00 0 0 0
5590 932 2 0.0000000000000000e+00 4.3494539671004551e-01 1.5217242015305331e+01 3.8269090890201887e+00 1 0 0
252 42 1 0.0000000000000000e+00 5.7538792328792798e+00 1.7666000485738060e+01 1.8065402113795523e+00 0 0 0
180 30 1 0.0000000000000000e+00 9.2157473941930963e+00 1.7082453801316905e+01 6.5396858462871315e+00 0 0 1
177 30 2 0.0000000000000000e+00 9.6022217468074196e+00 1.7589790748211289e+01 2.7418656350228816e+00 0 0 1
179 30 2 0.0000000000000000e+00 9.4626337767560784e+00 1.6709651342265087e+01 5.0764686065616420e+00 0 0 1
178 30 2 0.0000000000000000e+00 9.3553353642444357e+00 1.7962593207263112e+01 4.2050828747483706e+00 0 0 1
780 130 1 0.0000000000000000e+00 1.6201701817464684e+01 1.0303518921347541e+01 4.1504178415674524e+01 0 0 0
737 123 2 0.0000000000000000e+00 1.4089563513736024e+01 1.3242361366330353e+01 1.8035537603850669e+00 0 0 0
736 123 2 0.0000000000000000e+00 1.3769066338425535e+01 1.4136179094752350e+01 3.0027457504252517e+00 0 0 0
738 123 1 0.0000000000000000e+00 1.3096513549110998e+01 1.3526869665827206e+01 6.7435236325715042e-01 0 0 0
1447 242 1 0.0000000000000000e+00 1.7955736424416575e+01 1.7747836485225438e+01 3.5851101817916309e-01 0 0 0
1393 233 1 0.0000000000000000e+00 1.9123313053684111e+01 1.4209594480115983e+01 1.6273637031796746e+00 0 0 0
1394 233 2 0.0000000000000000e+00 1.9907242285299265e+01 1.3088486553831432e+01 2.3134839385912431e+00 0 0 0
1395 233 2 0.0000000000000000e+00 2.1083305985457571e+01 1.3687075587343578e+01 3.0869536161668725e+00 0 0 0
1396 233 2 0.0000000000000000e+00 2.1867235217072725e+01 1.2565967661059027e+01 3.7730738515784408e+00 0 0 0
1448 242 2 0.0000000000000000e+00 1.8887008769078275e+01 1.8169802005059381e+01 1.4973112289885773e+00 0 0 0
1449 242 2 0.0000000000000000e+00 1.9899988623195657e+01 1.9190929641011611e+01 9.7686894953106251e-01 0 0 0
1397 233 2 0.0000000000000000e+00 2.3043298917231034e+01 1.3164556694571171e+01 4.5465435291540723e+00 0 0 0
1435 240 1 0.0000000000000000e+00 2.4645518997167514e+01 1.6209434679586657e+01 2.6398631437576019e+00 0 0 1
1388 232 2 0.0000000000000000e+00 2.8359558238082641e+01 1.1545011303526946e+01 3.8834771273584661e+00 0 0 0
1381 231 1 0.0000000000000000e+00 2.8689633401556321e+01 1.5822602661544959e+01 1.6884053058146526e+00 0 0 0
1382 231 2 0.0000000000000000e+00 2.9606271593791906e+01 1.7015160957464200e+01 1.9708378382348246e+00 0 0 0
1383 231 2 0.0000000000000000e+00 2.8812515340834903e+01 1.8112109641349299e+01 2.6824167838300439e+00 0 0 0
1384 231 2 0.0000000000000000e+00 2.9729153533070484e+01 1.9304667937268540e+01 2.9648493162502159e+00 0 0 0
2043 341 2 0.0000000000000000e+00 3.3802559351924792e+01 1.4581681057696501e+01 4.2762398921373359e+00 0 0 0
1989 332 2 0.0000000000000000e+00 3.8351874810623151e+01 1.3508069013608806e+01 4.8677738338268579e+00 0 0 0
2044 341 2 0.0000000000000000e+00 3.4188563185953662e+01 1.5654331105017048e+01 3.2563806292494473e+00 0 0 0
2042 341 2 0.0000000000000000e+00 3.3187945887796040e+01 1.5247083094648323e+01 5.5098035990175358e+00 0 0 0
2041 341 1 0.0000000000000000e+00 3.2801942053767171e+01 1.4174433047327774e+01 6.5296628619054315e+00 0 0 0
1988 332 2 0.0000000000000000e+00 3.7608392940734078e+01 1.3329424509944253e+01 6.1934849073480436e+00 0 0 0
2045 341 2 0.0000000000000000e+00 3.4803176650082413e+01 1.4988929068065227e+01 2.0228169223692474e+00 0 0 0
1990 332 2 0.0000000000000000e+00 3.8226143053989269e+01 1.4960039650227751e+01 4.4033787479677127e+00 0 0 0
1991 332 2 0.0000000000000000e+00 3.8969624923878342e+01 1.5138684153892303e+01 3.0776676744465270e+00 0 0 0
1992 332 1 0.0000000000000000e+00 3.8843893167244467e+01 1.6590654790511252e+01 2.6132725885873760e+00 0 0 0
2591 432 2 0.0000000000000000e+00 4.2592613992557034e+01 1.1401095041243469e+01 4.1328745024617275e+00 0 0 0
2592 432 1 0.0000000000000000e+00 4.2912159622345101e+01 1.2856195920475143e+01 3.7825018126833263e+00 0 0 0
2658 443 1 0.0000000000000000e+00 4.5127540979242930e+01 1.7630060609746181e+01 5.2803441369195383e+00 0 0 0
2538 423 1 0.0000000000000000e+00 5.0951368400171290e+01 1.2541135201773992e+01 5.2064065284142460e+00 0 0 0
2657 443 2 0.0000000000000000e+00 4.4220357257972474e+01 1.7898390829229182e+01 6.4833427192853224e+00 0 0 0
2656 443 2 0.0000000000000000e+00 4.2825913387738474e+01 1.7333492999131465e+01 6.2074682291313845e+00 0 0 0
2583 431 2 0.0000000000000000e+00 4.5228276347220628e+01 1.5415322767765721e+01 1.6847536764487241e+00 0 0 0
3185 531 2 0.0000000000000000e+00 5.2230210435472394e+01 1.5817419644455239e+01 2.0081790101836305e+00 0 0 0
3184 531 2 0.0000000000000000e+00 5.1961752716320170e+01 1.4395061008961655e+01 1.5111726067395548e+00 0 0 0
3186 531 1 0.0000000000000000e+00 5.1124570721951173e+01 1.6749657775282223e+01 1.5099994328052291e+00 0 0 0
3182 531 2 0.0000000000000000e+00 5.2798599703888698e+01 1.2041406458233856e+01 1.5123453112165235e+00 0 0 0
3183 531 2 0.0000000000000000e+00 5.3067392429841391e+01 1.3462822878134677e+01 2.0093521841179558e+00 0 0 0
3189 532 2 0.0000000000000000e+00 5.6485332389088796e+01 1.6758535166510757e+01 4.8116582889141402e+00 0 0 0
3190 532 2 0.0000000000000000e+00 5.6030820990791810e+01 1.6520799534047516e+01 3.3706200667023190e+00 0 0 0
3191 532 2 0.0000000000000000e+00 5.7049235779561819e+01 1.5631320314330180e+01 2.6537888203789097e+00 0 0 0